
Host: DESKTOP-O4NNMN2

Timers On : Wed Aug 18 21:03:45 2021
Timers Off: Wed Aug 18 21:04:20 2021

Wall Time:       34.25 seconds

                                                       Time (seconds)
Module                                       User      System        Wall        Calls

--------------------------------------------------------------------------------------

**************************************************************************************

Host: DESKTOP-O4NNMN2

Timers On : Wed Aug 18 21:05:31 2021
Timers Off: Wed Aug 18 21:06:36 2021

Wall Time:       64.78 seconds

                                                       Time (seconds)
Module                                       User      System        Wall        Calls

--------------------------------------------------------------------------------------

**************************************************************************************

Host: DESKTOP-O4NNMN2

Timers On : Wed Aug 18 21:08:26 2021
Timers Off: Wed Aug 18 21:10:20 2021

Wall Time:      114.00 seconds

                                                       Time (seconds)
Module                                       User      System        Wall        Calls

--------------------------------------------------------------------------------------

**************************************************************************************

Host: DESKTOP-O4NNMN2

Timers On : Wed Aug 18 21:17:36 2021
Timers Off: Wed Aug 18 21:18:29 2021

Wall Time:       53.01 seconds

                                                       Time (seconds)
Module                                       User      System        Wall        Calls

--------------------------------------------------------------------------------------

**************************************************************************************

Host: DESKTOP-O4NNMN2

Timers On : Wed Aug 18 21:25:15 2021
Timers Off: Wed Aug 18 21:28:42 2021

Wall Time:      207.39 seconds

                                                       Time (seconds)
Module                                       User      System        Wall        Calls

--------------------------------------------------------------------------------------

**************************************************************************************

Host: DESKTOP-O4NNMN2

Timers On : Wed Aug 18 21:29:56 2021
Timers Off: Wed Aug 18 21:32:15 2021

Wall Time:      138.92 seconds

                                                       Time (seconds)
Module                                       User      System        Wall        Calls

--------------------------------------------------------------------------------------

**************************************************************************************

Host: DESKTOP-O4NNMN2

Timers On : Wed Aug 18 21:43:05 2021
Timers Off: Wed Aug 18 21:45:02 2021

Wall Time:      117.27 seconds

                                                       Time (seconds)
Module                                       User      System        Wall        Calls

--------------------------------------------------------------------------------------

**************************************************************************************

Host: DESKTOP-O4NNMN2

Timers On : Wed Aug 18 21:45:57 2021
Timers Off: Wed Aug 18 21:46:38 2021

Wall Time:       41.00 seconds

                                                       Time (seconds)
Module                                       User      System        Wall        Calls

--------------------------------------------------------------------------------------

**************************************************************************************

Host: DESKTOP-O4NNMN2

Timers On : Wed Aug 18 21:50:06 2021
Timers Off: Wed Aug 18 21:51:12 2021

Wall Time:       65.23 seconds

                                                       Time (seconds)
Module                                       User      System        Wall        Calls

--------------------------------------------------------------------------------------

**************************************************************************************

Host: DESKTOP-O4NNMN2

Timers On : Wed Aug 18 21:52:48 2021
Timers Off: Wed Aug 18 21:52:58 2021

Wall Time:       10.09 seconds

                                                       Time (seconds)
Module                                       User      System        Wall        Calls

--------------------------------------------------------------------------------------

**************************************************************************************

Host: DESKTOP-O4NNMN2

Timers On : Wed Aug 18 21:55:24 2021
Timers Off: Wed Aug 18 22:02:42 2021

Wall Time:      438.49 seconds

                                                       Time (seconds)
Module                                       User      System        Wall        Calls

--------------------------------------------------------------------------------------

**************************************************************************************

Host: DESKTOP-O4NNMN2

Timers On : Wed Aug 18 22:02:53 2021
Timers Off: Wed Aug 18 22:03:05 2021

Wall Time:       11.26 seconds

                                                       Time (seconds)
Module                                       User      System        Wall        Calls

--------------------------------------------------------------------------------------

**************************************************************************************

Host: DESKTOP-O4NNMN2

Timers On : Wed Aug 18 22:03:28 2021
Timers Off: Wed Aug 18 22:03:44 2021

Wall Time:       16.65 seconds

                                                       Time (seconds)
Module                                       User      System        Wall        Calls

--------------------------------------------------------------------------------------

**************************************************************************************

Host: DESKTOP-O4NNMN2

Timers On : Wed Aug 18 22:06:16 2021
Timers Off: Wed Aug 18 22:08:59 2021

Wall Time:      162.30 seconds

                                                       Time (seconds)
Module                                       User      System        Wall        Calls

--------------------------------------------------------------------------------------

**************************************************************************************

Host: aperfield

Timers On : Sat Aug 21 12:27:15 2021
Timers Off: Sat Aug 21 12:28:32 2021

Wall Time:       77.52 seconds

                                                       Time (seconds)
Module                                       User      System        Wall        Calls

--------------------------------------------------------------------------------------

**************************************************************************************

Host: aperfield

Timers On : Sat Aug 21 12:30:15 2021
Timers Off: Sat Aug 21 12:31:54 2021

Wall Time:       99.21 seconds

                                                       Time (seconds)
Module                                       User      System        Wall        Calls

--------------------------------------------------------------------------------------

**************************************************************************************

Host: aperfield

Timers On : Sat Aug 21 12:40:00 2021
Timers Off: Sat Aug 21 12:41:40 2021

Wall Time:      100.66 seconds

                                                       Time (seconds)
Module                                       User      System        Wall        Calls

--------------------------------------------------------------------------------------

**************************************************************************************

Host: aperfield

Timers On : Sat Aug 21 12:46:27 2021
Timers Off: Sat Aug 21 12:47:05 2021

Wall Time:       37.32 seconds

                                                       Time (seconds)
Module                                       User      System        Wall        Calls

--------------------------------------------------------------------------------------

**************************************************************************************

Host: aperfield

Timers On : Sat Aug 21 14:21:03 2021
Timers Off: Sat Aug 21 14:21:11 2021

Wall Time:        7.88 seconds

                                                       Time (seconds)
Module                                       User      System        Wall        Calls

--------------------------------------------------------------------------------------

**************************************************************************************

Host: aperfield

Timers On : Sat Aug 21 14:42:13 2021
Timers Off: Sat Aug 21 14:42:21 2021

Wall Time:        8.04 seconds

                                                       Time (seconds)
Module                                       User      System        Wall        Calls

--------------------------------------------------------------------------------------

**************************************************************************************

Host: aperfield

Timers On : Sat Aug 21 14:43:50 2021
Timers Off: Sat Aug 21 14:45:12 2021

Wall Time:       82.32 seconds

                                                       Time (seconds)
Module                                       User      System        Wall        Calls

--------------------------------------------------------------------------------------

**************************************************************************************

Host: aperfield

Timers On : Sun Aug 22 23:27:01 2021
Timers Off: Sun Aug 22 23:27:09 2021

Wall Time:        7.82 seconds

                                                       Time (seconds)
Module                                       User      System        Wall        Calls

--------------------------------------------------------------------------------------

**************************************************************************************

Host: aperfield

Timers On : Mon Aug 23 13:47:42 2021
Timers Off: Mon Aug 23 13:48:11 2021

Wall Time:       29.04 seconds

                                                       Time (seconds)
Module                                       User      System        Wall        Calls

--------------------------------------------------------------------------------------

**************************************************************************************

Host: aperfield

Timers On : Mon Aug 23 13:49:45 2021
Timers Off: Mon Aug 23 13:50:17 2021

Wall Time:       31.16 seconds

                                                       Time (seconds)
Module                                       User      System        Wall        Calls

--------------------------------------------------------------------------------------

**************************************************************************************
