
Host: boyle

Timers On : Sat Aug 14 20:18:19 2021
Timers Off: Sat Aug 14 20:25:34 2021

Wall Time:      435.06 seconds

                                                       Time (seconds)
Module                                       User      System        Wall        Calls

--------------------------------------------------------------------------------------

**************************************************************************************

Host: boyle

Timers On : Sat Aug 14 20:27:48 2021
Timers Off: Sat Aug 14 20:32:12 2021

Wall Time:      263.65 seconds

                                                       Time (seconds)
Module                                       User      System        Wall        Calls

--------------------------------------------------------------------------------------

**************************************************************************************

Host: boyle

Timers On : Sat Aug 14 20:34:33 2021
Timers Off: Sat Aug 14 20:41:01 2021

Wall Time:      388.18 seconds

                                                       Time (seconds)
Module                                       User      System        Wall        Calls

--------------------------------------------------------------------------------------

**************************************************************************************

Host: boyle

Timers On : Sun Aug 15 00:02:01 2021
Timers Off: Sun Aug 15 00:02:32 2021

Wall Time:       31.65 seconds

                                                       Time (seconds)
Module                                       User      System        Wall        Calls

--------------------------------------------------------------------------------------

**************************************************************************************

Host: DESKTOP-O4NNMN2

Timers On : Wed Aug 18 19:51:20 2021
Timers Off: Wed Aug 18 19:51:31 2021

Wall Time:       11.05 seconds

                                                       Time (seconds)
Module                                       User      System        Wall        Calls

--------------------------------------------------------------------------------------

**************************************************************************************

Host: DESKTOP-O4NNMN2

Timers On : Wed Aug 18 19:52:50 2021
Timers Off: Wed Aug 18 19:53:05 2021

Wall Time:       14.31 seconds

                                                       Time (seconds)
Module                                       User      System        Wall        Calls

--------------------------------------------------------------------------------------

**************************************************************************************

Host: DESKTOP-O4NNMN2

Timers On : Wed Aug 18 20:30:27 2021
Timers Off: Wed Aug 18 20:31:16 2021

Wall Time:       49.39 seconds

                                                       Time (seconds)
Module                                       User      System        Wall        Calls

--------------------------------------------------------------------------------------

**************************************************************************************

Host: DESKTOP-O4NNMN2

Timers On : Wed Aug 18 20:36:56 2021
Timers Off: Wed Aug 18 20:37:14 2021

Wall Time:       17.96 seconds

                                                       Time (seconds)
Module                                       User      System        Wall        Calls

--------------------------------------------------------------------------------------

**************************************************************************************

Host: aperfield

Timers On : Thu Aug 19 15:51:41 2021
Timers Off: Thu Aug 19 15:52:04 2021

Wall Time:       22.29 seconds

                                                       Time (seconds)
Module                                       User      System        Wall        Calls

--------------------------------------------------------------------------------------

**************************************************************************************

Host: aperfield

Timers On : Thu Aug 19 15:54:01 2021
Timers Off: Thu Aug 19 15:54:22 2021

Wall Time:       20.85 seconds

                                                       Time (seconds)
Module                                       User      System        Wall        Calls

--------------------------------------------------------------------------------------

**************************************************************************************

Host: aperfield

Timers On : Thu Aug 19 15:55:49 2021
Timers Off: Thu Aug 19 15:56:10 2021

Wall Time:       21.02 seconds

                                                       Time (seconds)
Module                                       User      System        Wall        Calls

--------------------------------------------------------------------------------------

**************************************************************************************

Host: aperfield

Timers On : Thu Aug 19 15:56:55 2021
Timers Off: Thu Aug 19 15:57:10 2021

Wall Time:       15.07 seconds

                                                       Time (seconds)
Module                                       User      System        Wall        Calls

--------------------------------------------------------------------------------------

**************************************************************************************

Host: aperfield

Timers On : Thu Aug 19 16:00:25 2021
Timers Off: Thu Aug 19 16:00:37 2021

Wall Time:       12.43 seconds

                                                       Time (seconds)
Module                                       User      System        Wall        Calls

--------------------------------------------------------------------------------------

**************************************************************************************

Host: aperfield

Timers On : Thu Aug 19 19:11:26 2021
Timers Off: Thu Aug 19 19:11:28 2021

Wall Time:        2.17 seconds

                                                       Time (seconds)
Module                                       User      System        Wall        Calls

--------------------------------------------------------------------------------------

**************************************************************************************

Host: aperfield

Timers On : Thu Aug 19 19:12:22 2021
Timers Off: Thu Aug 19 19:12:38 2021

Wall Time:       15.91 seconds

                                                       Time (seconds)
Module                                       User      System        Wall        Calls

--------------------------------------------------------------------------------------

**************************************************************************************

Host: aperfield

Timers On : Thu Aug 19 19:14:21 2021
Timers Off: Thu Aug 19 19:14:34 2021

Wall Time:       12.54 seconds

                                                       Time (seconds)
Module                                       User      System        Wall        Calls

--------------------------------------------------------------------------------------

**************************************************************************************

Host: aperfield

Timers On : Thu Aug 19 19:30:09 2021
Timers Off: Thu Aug 19 19:30:11 2021

Wall Time:        1.95 seconds

                                                       Time (seconds)
Module                                       User      System        Wall        Calls

--------------------------------------------------------------------------------------

**************************************************************************************

Host: aperfield

Timers On : Thu Aug 19 19:30:47 2021
Timers Off: Thu Aug 19 19:30:49 2021

Wall Time:        1.89 seconds

                                                       Time (seconds)
Module                                       User      System        Wall        Calls

--------------------------------------------------------------------------------------

**************************************************************************************

Host: aperfield

Timers On : Fri Aug 20 11:56:37 2021
Timers Off: Fri Aug 20 11:57:05 2021

Wall Time:       27.77 seconds

                                                       Time (seconds)
Module                                       User      System        Wall        Calls

--------------------------------------------------------------------------------------

**************************************************************************************

Host: aperfield

Timers On : Fri Aug 20 11:58:23 2021
Timers Off: Fri Aug 20 11:58:48 2021

Wall Time:       24.71 seconds

                                                       Time (seconds)
Module                                       User      System        Wall        Calls

--------------------------------------------------------------------------------------

**************************************************************************************

Host: aperfield

Timers On : Fri Aug 20 12:03:15 2021
Timers Off: Fri Aug 20 12:03:18 2021

Wall Time:        2.55 seconds

                                                       Time (seconds)
Module                                       User      System        Wall        Calls

--------------------------------------------------------------------------------------

**************************************************************************************

Host: aperfield

Timers On : Fri Aug 20 12:06:44 2021
Timers Off: Fri Aug 20 12:07:10 2021

Wall Time:       26.32 seconds

                                                       Time (seconds)
Module                                       User      System        Wall        Calls

--------------------------------------------------------------------------------------

**************************************************************************************

Host: aperfield

Timers On : Fri Aug 20 12:08:16 2021
Timers Off: Fri Aug 20 12:08:43 2021

Wall Time:       27.36 seconds

                                                       Time (seconds)
Module                                       User      System        Wall        Calls

--------------------------------------------------------------------------------------

**************************************************************************************

Host: aperfield

Timers On : Fri Aug 20 12:13:12 2021
Timers Off: Fri Aug 20 12:13:35 2021

Wall Time:       22.86 seconds

                                                       Time (seconds)
Module                                       User      System        Wall        Calls

--------------------------------------------------------------------------------------

**************************************************************************************

Host: aperfield

Timers On : Thu Aug 19 16:20:08 2021
Timers Off: Fri Aug 20 13:55:20 2021

Wall Time:    77712.03 seconds

                                                       Time (seconds)
Module                                       User      System        Wall        Calls

--------------------------------------------------------------------------------------

**************************************************************************************

Host: aperfield

Timers On : Fri Aug 20 13:55:25 2021
Timers Off: Fri Aug 20 13:59:27 2021

Wall Time:      241.70 seconds

                                                       Time (seconds)
Module                                       User      System        Wall        Calls

--------------------------------------------------------------------------------------

**************************************************************************************

Host: aperfield

Timers On : Fri Aug 20 14:02:34 2021
Timers Off: Fri Aug 20 14:03:36 2021

Wall Time:       62.03 seconds

                                                       Time (seconds)
Module                                       User      System        Wall        Calls

--------------------------------------------------------------------------------------

**************************************************************************************

Host: aperfield

Timers On : Fri Aug 20 14:03:37 2021
Timers Off: Fri Aug 20 14:05:30 2021

Wall Time:      113.74 seconds

                                                       Time (seconds)
Module                                       User      System        Wall        Calls

--------------------------------------------------------------------------------------

**************************************************************************************

Host: aperfield

Timers On : Fri Aug 20 14:05:32 2021
Timers Off: Fri Aug 20 14:11:48 2021

Wall Time:      375.32 seconds

                                                       Time (seconds)
Module                                       User      System        Wall        Calls

--------------------------------------------------------------------------------------

**************************************************************************************

Host: aperfield

Timers On : Fri Aug 20 14:11:49 2021
Timers Off: Fri Aug 20 14:55:05 2021

Wall Time:     2596.25 seconds

                                                       Time (seconds)
Module                                       User      System        Wall        Calls

--------------------------------------------------------------------------------------

**************************************************************************************

Host: aperfield

Timers On : Fri Aug 20 14:55:06 2021
Timers Off: Fri Aug 20 16:14:27 2021

Wall Time:     4761.62 seconds

                                                       Time (seconds)
Module                                       User      System        Wall        Calls

--------------------------------------------------------------------------------------

**************************************************************************************

Host: aperfield

Timers On : Fri Aug 20 16:14:29 2021
Timers Off: Fri Aug 20 16:20:14 2021

Wall Time:      344.32 seconds

                                                       Time (seconds)
Module                                       User      System        Wall        Calls

--------------------------------------------------------------------------------------

**************************************************************************************

Host: aperfield

Timers On : Fri Aug 20 16:20:15 2021
Timers Off: Fri Aug 20 16:22:17 2021

Wall Time:      121.92 seconds

                                                       Time (seconds)
Module                                       User      System        Wall        Calls

--------------------------------------------------------------------------------------

**************************************************************************************

Host: aperfield

Timers On : Fri Aug 20 16:22:18 2021
Timers Off: Fri Aug 20 16:29:39 2021

Wall Time:      441.12 seconds

                                                       Time (seconds)
Module                                       User      System        Wall        Calls

--------------------------------------------------------------------------------------

**************************************************************************************

Host: aperfield

Timers On : Fri Aug 20 16:29:41 2021
Timers Off: Fri Aug 20 19:10:38 2021

Wall Time:     9657.12 seconds

                                                       Time (seconds)
Module                                       User      System        Wall        Calls

--------------------------------------------------------------------------------------

**************************************************************************************

Host: aperfield

Timers On : Fri Aug 20 19:10:48 2021
Timers Off: Fri Aug 20 19:13:15 2021

Wall Time:      146.93 seconds

                                                       Time (seconds)
Module                                       User      System        Wall        Calls

--------------------------------------------------------------------------------------

**************************************************************************************

Host: aperfield

Timers On : Fri Aug 20 19:13:17 2021
Timers Off: Fri Aug 20 19:51:10 2021

Wall Time:     2272.89 seconds

                                                       Time (seconds)
Module                                       User      System        Wall        Calls

--------------------------------------------------------------------------------------

**************************************************************************************

Host: aperfield

Timers On : Fri Aug 20 19:51:11 2021
Timers Off: Fri Aug 20 20:56:16 2021

Wall Time:     3904.86 seconds

                                                       Time (seconds)
Module                                       User      System        Wall        Calls

--------------------------------------------------------------------------------------

**************************************************************************************

Host: aperfield

Timers On : Fri Aug 20 20:56:22 2021
Timers Off: Fri Aug 20 20:58:38 2021

Wall Time:      136.14 seconds

                                                       Time (seconds)
Module                                       User      System        Wall        Calls

--------------------------------------------------------------------------------------

**************************************************************************************

Host: aperfield

Timers On : Fri Aug 20 20:58:42 2021
Timers Off: Fri Aug 20 21:04:10 2021

Wall Time:      328.77 seconds

                                                       Time (seconds)
Module                                       User      System        Wall        Calls

--------------------------------------------------------------------------------------

**************************************************************************************

Host: aperfield

Timers On : Fri Aug 20 21:04:13 2021
Timers Off: Fri Aug 20 21:34:13 2021

Wall Time:     1799.66 seconds

                                                       Time (seconds)
Module                                       User      System        Wall        Calls

--------------------------------------------------------------------------------------

**************************************************************************************

Host: aperfield

Timers On : Fri Aug 20 21:34:26 2021
Timers Off: Fri Aug 20 21:37:49 2021

Wall Time:      202.98 seconds

                                                       Time (seconds)
Module                                       User      System        Wall        Calls

--------------------------------------------------------------------------------------

**************************************************************************************

Host: aperfield

Timers On : Fri Aug 20 21:37:50 2021
Timers Off: Fri Aug 20 21:40:02 2021

Wall Time:      131.95 seconds

                                                       Time (seconds)
Module                                       User      System        Wall        Calls

--------------------------------------------------------------------------------------

**************************************************************************************

Host: aperfield

Timers On : Fri Aug 20 21:40:06 2021
Timers Off: Fri Aug 20 21:40:33 2021

Wall Time:       26.85 seconds

                                                       Time (seconds)
Module                                       User      System        Wall        Calls

--------------------------------------------------------------------------------------

**************************************************************************************

Host: aperfield

Timers On : Fri Aug 20 21:40:36 2021
Timers Off: Fri Aug 20 21:43:20 2021

Wall Time:      164.33 seconds

                                                       Time (seconds)
Module                                       User      System        Wall        Calls

--------------------------------------------------------------------------------------

**************************************************************************************

Host: aperfield

Timers On : Fri Aug 20 21:43:26 2021
Timers Off: Fri Aug 20 21:50:13 2021

Wall Time:      407.24 seconds

                                                       Time (seconds)
Module                                       User      System        Wall        Calls

--------------------------------------------------------------------------------------

**************************************************************************************

Host: aperfield

Timers On : Fri Aug 20 21:50:29 2021
Timers Off: Fri Aug 20 21:57:53 2021

Wall Time:      444.28 seconds

                                                       Time (seconds)
Module                                       User      System        Wall        Calls

--------------------------------------------------------------------------------------

**************************************************************************************

Host: aperfield

Timers On : Fri Aug 20 21:57:58 2021
Timers Off: Fri Aug 20 22:03:41 2021

Wall Time:      343.70 seconds

                                                       Time (seconds)
Module                                       User      System        Wall        Calls

--------------------------------------------------------------------------------------

**************************************************************************************

Host: aperfield

Timers On : Fri Aug 20 22:03:46 2021
Timers Off: Fri Aug 20 22:05:24 2021

Wall Time:       98.43 seconds

                                                       Time (seconds)
Module                                       User      System        Wall        Calls

--------------------------------------------------------------------------------------

**************************************************************************************

Host: aperfield

Timers On : Fri Aug 20 22:05:27 2021
Timers Off: Fri Aug 20 22:48:46 2021

Wall Time:     2599.31 seconds

                                                       Time (seconds)
Module                                       User      System        Wall        Calls

--------------------------------------------------------------------------------------

**************************************************************************************

Host: aperfield

Timers On : Fri Aug 20 22:49:30 2021
Timers Off: Fri Aug 20 22:58:31 2021

Wall Time:      541.34 seconds

                                                       Time (seconds)
Module                                       User      System        Wall        Calls

--------------------------------------------------------------------------------------

**************************************************************************************

Host: aperfield

Timers On : Fri Aug 20 22:58:37 2021
Timers Off: Fri Aug 20 23:05:45 2021

Wall Time:      428.71 seconds

                                                       Time (seconds)
Module                                       User      System        Wall        Calls

--------------------------------------------------------------------------------------

**************************************************************************************

Host: aperfield

Timers On : Fri Aug 20 23:05:48 2021
Timers Off: Fri Aug 20 23:11:38 2021

Wall Time:      349.36 seconds

                                                       Time (seconds)
Module                                       User      System        Wall        Calls

--------------------------------------------------------------------------------------

**************************************************************************************

Host: aperfield

Timers On : Fri Aug 20 23:11:42 2021
Timers Off: Fri Aug 20 23:17:45 2021

Wall Time:      362.42 seconds

                                                       Time (seconds)
Module                                       User      System        Wall        Calls

--------------------------------------------------------------------------------------

**************************************************************************************

Host: aperfield

Timers On : Fri Aug 20 23:17:48 2021
Timers Off: Fri Aug 20 23:29:32 2021

Wall Time:      703.80 seconds

                                                       Time (seconds)
Module                                       User      System        Wall        Calls

--------------------------------------------------------------------------------------

**************************************************************************************

Host: aperfield

Timers On : Fri Aug 20 23:31:06 2021
Timers Off: Fri Aug 20 23:46:49 2021

Wall Time:      942.97 seconds

                                                       Time (seconds)
Module                                       User      System        Wall        Calls

--------------------------------------------------------------------------------------

**************************************************************************************

Host: aperfield

Timers On : Fri Aug 20 23:46:52 2021
Timers Off: Sat Aug 21 00:08:33 2021

Wall Time:     1301.58 seconds

                                                       Time (seconds)
Module                                       User      System        Wall        Calls

--------------------------------------------------------------------------------------

**************************************************************************************

Host: aperfield

Timers On : Sat Aug 21 00:08:36 2021
Timers Off: Sat Aug 21 00:10:06 2021

Wall Time:       90.43 seconds

                                                       Time (seconds)
Module                                       User      System        Wall        Calls

--------------------------------------------------------------------------------------

**************************************************************************************

Host: aperfield

Timers On : Sat Aug 21 00:10:49 2021
Timers Off: Sat Aug 21 00:25:48 2021

Wall Time:      899.37 seconds

                                                       Time (seconds)
Module                                       User      System        Wall        Calls

--------------------------------------------------------------------------------------

**************************************************************************************

Host: aperfield

Timers On : Sat Aug 21 00:25:51 2021
Timers Off: Sat Aug 21 00:32:32 2021

Wall Time:      401.15 seconds

                                                       Time (seconds)
Module                                       User      System        Wall        Calls

--------------------------------------------------------------------------------------

**************************************************************************************

Host: aperfield

Timers On : Sat Aug 21 00:32:33 2021
Timers Off: Sat Aug 21 00:35:43 2021

Wall Time:      190.00 seconds

                                                       Time (seconds)
Module                                       User      System        Wall        Calls

--------------------------------------------------------------------------------------

**************************************************************************************

Host: aperfield

Timers On : Sat Aug 21 00:35:46 2021
Timers Off: Sat Aug 21 01:00:19 2021

Wall Time:     1473.47 seconds

                                                       Time (seconds)
Module                                       User      System        Wall        Calls

--------------------------------------------------------------------------------------

**************************************************************************************

Host: aperfield

Timers On : Sat Aug 21 01:00:22 2021
Timers Off: Sat Aug 21 01:16:13 2021

Wall Time:      951.00 seconds

                                                       Time (seconds)
Module                                       User      System        Wall        Calls

--------------------------------------------------------------------------------------

**************************************************************************************

Host: aperfield

Timers On : Sat Aug 21 10:55:46 2021
Timers Off: Sat Aug 21 10:56:20 2021

Wall Time:       33.41 seconds

                                                       Time (seconds)
Module                                       User      System        Wall        Calls

--------------------------------------------------------------------------------------

**************************************************************************************

Host: aperfield

Timers On : Sat Aug 21 11:55:00 2021
Timers Off: Sat Aug 21 11:55:03 2021

Wall Time:        3.02 seconds

                                                       Time (seconds)
Module                                       User      System        Wall        Calls

--------------------------------------------------------------------------------------

**************************************************************************************

Host: aperfield

Timers On : Sat Aug 21 12:03:35 2021
Timers Off: Sat Aug 21 12:05:24 2021

Wall Time:      108.96 seconds

                                                       Time (seconds)
Module                                       User      System        Wall        Calls

--------------------------------------------------------------------------------------

**************************************************************************************

Host: aperfield

Timers On : Sat Aug 21 12:09:07 2021
Timers Off: Sat Aug 21 12:09:12 2021

Wall Time:        4.88 seconds

                                                       Time (seconds)
Module                                       User      System        Wall        Calls

--------------------------------------------------------------------------------------

**************************************************************************************

Host: aperfield

Timers On : Sat Aug 21 12:09:27 2021
Timers Off: Sat Aug 21 12:10:45 2021

Wall Time:       77.44 seconds

                                                       Time (seconds)
Module                                       User      System        Wall        Calls

--------------------------------------------------------------------------------------

**************************************************************************************

Host: aperfield

Timers On : Sat Aug 21 12:10:47 2021
Timers Off: Sat Aug 21 12:10:52 2021

Wall Time:        5.19 seconds

                                                       Time (seconds)
Module                                       User      System        Wall        Calls

--------------------------------------------------------------------------------------

**************************************************************************************

Host: aperfield

Timers On : Sat Aug 21 12:11:25 2021
Timers Off: Sat Aug 21 12:13:17 2021

Wall Time:      111.88 seconds

                                                       Time (seconds)
Module                                       User      System        Wall        Calls

--------------------------------------------------------------------------------------

**************************************************************************************

Host: aperfield

Timers On : Sat Aug 21 12:59:03 2021
Timers Off: Sat Aug 21 13:05:38 2021

Wall Time:      395.14 seconds

                                                       Time (seconds)
Module                                       User      System        Wall        Calls

--------------------------------------------------------------------------------------

**************************************************************************************

Host: aperfield

Timers On : Sat Aug 21 13:33:14 2021
Timers Off: Sat Aug 21 13:33:19 2021

Wall Time:        4.89 seconds

                                                       Time (seconds)
Module                                       User      System        Wall        Calls

--------------------------------------------------------------------------------------

**************************************************************************************

Host: aperfield

Timers On : Sat Aug 21 13:05:43 2021
Timers Off: Sat Aug 21 13:43:57 2021

Wall Time:     2293.89 seconds

                                                       Time (seconds)
Module                                       User      System        Wall        Calls

--------------------------------------------------------------------------------------

**************************************************************************************

Host: aperfield

Timers On : Sat Aug 21 13:51:45 2021
Timers Off: Sat Aug 21 13:51:50 2021

Wall Time:        4.89 seconds

                                                       Time (seconds)
Module                                       User      System        Wall        Calls

--------------------------------------------------------------------------------------

**************************************************************************************

Host: aperfield

Timers On : Sat Aug 21 13:43:58 2021
Timers Off: Sat Aug 21 13:59:08 2021

Wall Time:      909.63 seconds

                                                       Time (seconds)
Module                                       User      System        Wall        Calls

--------------------------------------------------------------------------------------

**************************************************************************************

Host: aperfield

Timers On : Sat Aug 21 14:01:38 2021
Timers Off: Sat Aug 21 14:01:42 2021

Wall Time:        4.60 seconds

                                                       Time (seconds)
Module                                       User      System        Wall        Calls

--------------------------------------------------------------------------------------

**************************************************************************************

Host: aperfield

Timers On : Sat Aug 21 14:09:59 2021
Timers Off: Sat Aug 21 14:10:04 2021

Wall Time:        5.01 seconds

                                                       Time (seconds)
Module                                       User      System        Wall        Calls

--------------------------------------------------------------------------------------

**************************************************************************************

Host: aperfield

Timers On : Sat Aug 21 14:50:25 2021
Timers Off: Sat Aug 21 14:50:27 2021

Wall Time:        1.67 seconds

                                                       Time (seconds)
Module                                       User      System        Wall        Calls

--------------------------------------------------------------------------------------

**************************************************************************************

Host: aperfield

Timers On : Sat Aug 21 14:50:46 2021
Timers Off: Sat Aug 21 14:50:49 2021

Wall Time:        2.92 seconds

                                                       Time (seconds)
Module                                       User      System        Wall        Calls

--------------------------------------------------------------------------------------

**************************************************************************************

Host: aperfield

Timers On : Sat Aug 21 15:01:23 2021
Timers Off: Sat Aug 21 15:01:25 2021

Wall Time:        2.55 seconds

                                                       Time (seconds)
Module                                       User      System        Wall        Calls

--------------------------------------------------------------------------------------

**************************************************************************************

Host: aperfield

Timers On : Sat Aug 21 13:59:16 2021
Timers Off: Sat Aug 21 15:46:45 2021

Wall Time:     6448.60 seconds

                                                       Time (seconds)
Module                                       User      System        Wall        Calls

--------------------------------------------------------------------------------------

**************************************************************************************

Host: aperfield

Timers On : Sat Aug 21 15:28:20 2021
Timers Off: Sat Aug 21 16:09:10 2021

Wall Time:     2449.80 seconds

                                                       Time (seconds)
Module                                       User      System        Wall        Calls

--------------------------------------------------------------------------------------

**************************************************************************************

Host: aperfield

Timers On : Sat Aug 21 15:52:19 2021
Timers Off: Sat Aug 21 22:02:33 2021

Wall Time:    22214.26 seconds

                                                       Time (seconds)
Module                                       User      System        Wall        Calls

--------------------------------------------------------------------------------------

**************************************************************************************

Host: aperfield

Timers On : Sat Aug 21 16:09:13 2021
Timers Off: Sat Aug 21 22:02:43 2021

Wall Time:    21210.11 seconds

                                                       Time (seconds)
Module                                       User      System        Wall        Calls

--------------------------------------------------------------------------------------

**************************************************************************************

Host: aperfield

Timers On : Sat Aug 21 22:05:03 2021
Timers Off: Sun Aug 22 17:42:24 2021

Wall Time:    70640.86 seconds

                                                       Time (seconds)
Module                                       User      System        Wall        Calls

--------------------------------------------------------------------------------------

**************************************************************************************

Host: aperfield

Timers On : Sat Aug 21 22:02:47 2021
Timers Off: Sun Aug 22 17:46:41 2021

Wall Time:    71033.71 seconds

                                                       Time (seconds)
Module                                       User      System        Wall        Calls

--------------------------------------------------------------------------------------

**************************************************************************************

Host: aperfield

Timers On : Sun Aug 22 19:16:31 2021
Timers Off: Sun Aug 22 19:33:36 2021

Wall Time:     1024.93 seconds

                                                       Time (seconds)
Module                                       User      System        Wall        Calls

--------------------------------------------------------------------------------------

**************************************************************************************

Host: aperfield

Timers On : Sun Aug 22 22:39:33 2021
Timers Off: Sun Aug 22 23:06:38 2021

Wall Time:     1625.42 seconds

                                                       Time (seconds)
Module                                       User      System        Wall        Calls

--------------------------------------------------------------------------------------

**************************************************************************************

Host: aperfield

Timers On : Sun Aug 22 23:06:40 2021
Timers Off: Sun Aug 22 23:45:44 2021

Wall Time:     2344.17 seconds

                                                       Time (seconds)
Module                                       User      System        Wall        Calls

--------------------------------------------------------------------------------------

**************************************************************************************

Host: aperfield

Timers On : Sun Aug 22 23:45:45 2021
Timers Off: Mon Aug 23 01:11:03 2021

Wall Time:     5117.94 seconds

                                                       Time (seconds)
Module                                       User      System        Wall        Calls

--------------------------------------------------------------------------------------

**************************************************************************************

Host: aperfield

Timers On : Mon Aug 23 01:11:05 2021
Timers Off: Mon Aug 23 01:18:30 2021

Wall Time:      445.39 seconds

                                                       Time (seconds)
Module                                       User      System        Wall        Calls

--------------------------------------------------------------------------------------

**************************************************************************************

Host: aperfield

Timers On : Mon Aug 23 01:18:32 2021
Timers Off: Mon Aug 23 01:31:45 2021

Wall Time:      793.06 seconds

                                                       Time (seconds)
Module                                       User      System        Wall        Calls

--------------------------------------------------------------------------------------

**************************************************************************************

Host: aperfield

Timers On : Mon Aug 23 01:31:46 2021
Timers Off: Mon Aug 23 01:34:34 2021

Wall Time:      168.00 seconds

                                                       Time (seconds)
Module                                       User      System        Wall        Calls

--------------------------------------------------------------------------------------

**************************************************************************************

Host: aperfield

Timers On : Mon Aug 23 01:34:36 2021
Timers Off: Mon Aug 23 01:38:54 2021

Wall Time:      257.91 seconds

                                                       Time (seconds)
Module                                       User      System        Wall        Calls

--------------------------------------------------------------------------------------

**************************************************************************************

Host: aperfield

Timers On : Mon Aug 23 01:38:56 2021
Timers Off: Mon Aug 23 01:47:41 2021

Wall Time:      524.83 seconds

                                                       Time (seconds)
Module                                       User      System        Wall        Calls

--------------------------------------------------------------------------------------

**************************************************************************************

Host: aperfield

Timers On : Mon Aug 23 13:53:20 2021
Timers Off: Mon Aug 23 13:53:22 2021

Wall Time:        1.63 seconds

                                                       Time (seconds)
Module                                       User      System        Wall        Calls

--------------------------------------------------------------------------------------

**************************************************************************************

Host: aperfield

Timers On : Mon Aug 23 13:53:25 2021
Timers Off: Mon Aug 23 13:53:55 2021

Wall Time:       30.57 seconds

                                                       Time (seconds)
Module                                       User      System        Wall        Calls

--------------------------------------------------------------------------------------

**************************************************************************************

Host: aperfield

Timers On : Mon Aug 23 13:54:42 2021
Timers Off: Mon Aug 23 13:55:19 2021

Wall Time:       37.28 seconds

                                                       Time (seconds)
Module                                       User      System        Wall        Calls

--------------------------------------------------------------------------------------

**************************************************************************************

Host: aperfield

Timers On : Mon Aug 23 19:38:07 2021
Timers Off: Tue Aug 24 19:48:04 2021

Wall Time:    86996.75 seconds

                                                       Time (seconds)
Module                                       User      System        Wall        Calls

--------------------------------------------------------------------------------------

**************************************************************************************

Host: aperfield

Timers On : Tue Aug 24 22:21:58 2021
Timers Off: Tue Aug 24 22:22:00 2021

Wall Time:        1.69 seconds

                                                       Time (seconds)
Module                                       User      System        Wall        Calls

--------------------------------------------------------------------------------------

**************************************************************************************

Host: aperfield

Timers On : Tue Aug 24 22:22:26 2021
Timers Off: Tue Aug 24 22:23:48 2021

Wall Time:       81.76 seconds

                                                       Time (seconds)
Module                                       User      System        Wall        Calls

--------------------------------------------------------------------------------------

**************************************************************************************

Host: aperfield

Timers On : Tue Aug 24 22:32:58 2021
Timers Off: Tue Aug 24 22:34:14 2021

Wall Time:       75.98 seconds

                                                       Time (seconds)
Module                                       User      System        Wall        Calls

--------------------------------------------------------------------------------------

**************************************************************************************

Host: aperfield

Timers On : Tue Aug 24 23:10:03 2021
Timers Off: Tue Aug 24 23:10:05 2021

Wall Time:        1.67 seconds

                                                       Time (seconds)
Module                                       User      System        Wall        Calls

--------------------------------------------------------------------------------------

**************************************************************************************

Host: aperfield

Timers On : Tue Aug 24 23:10:28 2021
Timers Off: Tue Aug 24 23:11:44 2021

Wall Time:       76.12 seconds

                                                       Time (seconds)
Module                                       User      System        Wall        Calls

--------------------------------------------------------------------------------------

**************************************************************************************

Host: aperfield

Timers On : Tue Aug 24 23:12:26 2021
Timers Off: Tue Aug 24 23:12:35 2021

Wall Time:        9.60 seconds

                                                       Time (seconds)
Module                                       User      System        Wall        Calls

--------------------------------------------------------------------------------------

**************************************************************************************

Host: aperfield

Timers On : Tue Aug 24 23:12:58 2021
Timers Off: Tue Aug 24 23:14:02 2021

Wall Time:       63.81 seconds

                                                       Time (seconds)
Module                                       User      System        Wall        Calls

--------------------------------------------------------------------------------------

**************************************************************************************

Host: aperfield

Timers On : Tue Aug 24 23:33:04 2021
Timers Off: Tue Aug 24 23:34:11 2021

Wall Time:       67.10 seconds

                                                       Time (seconds)
Module                                       User      System        Wall        Calls

--------------------------------------------------------------------------------------

**************************************************************************************

Host: aperfield

Timers On : Tue Aug 24 19:48:05 2021
Timers Off: Tue Aug 24 23:34:16 2021

Wall Time:    13571.82 seconds

                                                       Time (seconds)
Module                                       User      System        Wall        Calls

--------------------------------------------------------------------------------------

**************************************************************************************

Host: aperfield

Timers On : Wed Aug 25 00:00:21 2021
Timers Off: Wed Aug 25 00:01:21 2021

Wall Time:       59.69 seconds

                                                       Time (seconds)
Module                                       User      System        Wall        Calls

--------------------------------------------------------------------------------------

**************************************************************************************

Host: aperfield

Timers On : Wed Aug 25 00:06:22 2021
Timers Off: Wed Aug 25 00:06:45 2021

Wall Time:       23.05 seconds

                                                       Time (seconds)
Module                                       User      System        Wall        Calls

--------------------------------------------------------------------------------------

**************************************************************************************

Host: aperfield

Timers On : Wed Aug 25 00:09:33 2021
Timers Off: Wed Aug 25 00:09:37 2021

Wall Time:        4.01 seconds

                                                       Time (seconds)
Module                                       User      System        Wall        Calls

--------------------------------------------------------------------------------------

**************************************************************************************

Host: aperfield

Timers On : Wed Aug 25 00:09:51 2021
Timers Off: Wed Aug 25 00:09:55 2021

Wall Time:        3.92 seconds

                                                       Time (seconds)
Module                                       User      System        Wall        Calls

--------------------------------------------------------------------------------------

**************************************************************************************

Host: aperfield

Timers On : Wed Aug 25 00:15:24 2021
Timers Off: Wed Aug 25 00:15:27 2021

Wall Time:        3.79 seconds

                                                       Time (seconds)
Module                                       User      System        Wall        Calls

--------------------------------------------------------------------------------------

**************************************************************************************

Host: aperfield

Timers On : Wed Aug 25 00:16:55 2021
Timers Off: Wed Aug 25 00:17:41 2021

Wall Time:       45.83 seconds

                                                       Time (seconds)
Module                                       User      System        Wall        Calls

--------------------------------------------------------------------------------------

**************************************************************************************

Host: aperfield

Timers On : Wed Aug 25 00:18:18 2021
Timers Off: Wed Aug 25 00:19:44 2021

Wall Time:       86.70 seconds

                                                       Time (seconds)
Module                                       User      System        Wall        Calls

--------------------------------------------------------------------------------------

**************************************************************************************

Host: aperfield

Timers On : Wed Aug 25 00:29:08 2021
Timers Off: Wed Aug 25 00:31:25 2021

Wall Time:      137.33 seconds

                                                       Time (seconds)
Module                                       User      System        Wall        Calls

--------------------------------------------------------------------------------------

**************************************************************************************

Host: aperfield

Timers On : Wed Aug 25 00:32:30 2021
Timers Off: Wed Aug 25 00:36:03 2021

Wall Time:      212.74 seconds

                                                       Time (seconds)
Module                                       User      System        Wall        Calls

--------------------------------------------------------------------------------------

**************************************************************************************

Host: aperfield

Timers On : Wed Aug 25 00:47:16 2021
Timers Off: Wed Aug 25 00:50:32 2021

Wall Time:      195.97 seconds

                                                       Time (seconds)
Module                                       User      System        Wall        Calls

--------------------------------------------------------------------------------------

**************************************************************************************

Host: aperfield

Timers On : Wed Aug 25 00:51:50 2021
Timers Off: Wed Aug 25 00:55:27 2021

Wall Time:      216.40 seconds

                                                       Time (seconds)
Module                                       User      System        Wall        Calls

--------------------------------------------------------------------------------------

**************************************************************************************

Host: aperfield

Timers On : Wed Aug 25 01:00:02 2021
Timers Off: Wed Aug 25 01:01:17 2021

Wall Time:       74.26 seconds

                                                       Time (seconds)
Module                                       User      System        Wall        Calls

--------------------------------------------------------------------------------------

**************************************************************************************

Host: aperfield

Timers On : Wed Aug 25 14:48:41 2021
Timers Off: Wed Aug 25 21:25:15 2021

Wall Time:    23793.78 seconds

                                                       Time (seconds)
Module                                       User      System        Wall        Calls

--------------------------------------------------------------------------------------

**************************************************************************************

Host: aperfield

Timers On : Wed Aug 25 21:37:30 2021
Timers Off: Wed Aug 25 21:38:07 2021

Wall Time:       36.78 seconds

                                                       Time (seconds)
Module                                       User      System        Wall        Calls

--------------------------------------------------------------------------------------

**************************************************************************************

Host: aperfield

Timers On : Wed Aug 25 21:38:28 2021
Timers Off: Wed Aug 25 22:17:53 2021

Wall Time:     2364.88 seconds

                                                       Time (seconds)
Module                                       User      System        Wall        Calls

--------------------------------------------------------------------------------------

**************************************************************************************

Host: aperfield

Timers On : Wed Aug 25 22:17:59 2021
Timers Off: Wed Aug 25 22:19:48 2021

Wall Time:      108.89 seconds

                                                       Time (seconds)
Module                                       User      System        Wall        Calls

--------------------------------------------------------------------------------------

**************************************************************************************

Host: aperfield

Timers On : Thu Aug 26 02:05:56 2021
Timers Off: Thu Aug 26 12:28:02 2021

Wall Time:    37325.71 seconds

                                                       Time (seconds)
Module                                       User      System        Wall        Calls

--------------------------------------------------------------------------------------

**************************************************************************************
