[Molden Format]
made by pyscf v[1.7.6]
[Atoms] (AU)
H   1   1     1.41610066445830     0.00000000000000     0.83607700949708
O   2   8     0.00000000000000     0.00000000000000    -0.31246753750512
H   3   1    -1.41610066445830     0.00000000000000     0.83607700949708
[GTO]
1 0
 s    6 1.00
           35.52322122  0.0091635962807908
           6.513143725    0.04936149294426
           1.822142904    0.16853830491455
           0.625955266    0.37056279973198
           0.243076747    0.41649152983594
           0.100112428    0.13033408411125

2 0
 s    6 1.00
           1355.584234  0.0091635962805625
           248.5448855    0.04936149294303
           69.53390229    0.16853830491035
           23.88677211    0.37056279972275
           9.275932609    0.41649152982557
           3.820341298      0.130334084108
 s    6 1.00
           52.18776196  -0.013252788089709
           10.32932006  -0.046991710138969
           3.210344977  -0.033785371509258
           1.235135428    0.25024178609451
           0.536420158    0.59511725258694
           0.245880606    0.24070617629472
 p    6 1.00
           52.18776196  0.0037596966004099
           10.32932006   0.037679369804108
           3.210344977    0.17389674351896
           1.235135428    0.41803643474557
           0.536420158    0.42585954774642
           0.245880606    0.10170829551109

3 0
 s    6 1.00
           35.52322122  0.0091635962807908
           6.513143725    0.04936149294426
           1.822142904    0.16853830491455
           0.625955266    0.37056279973198
           0.243076747    0.41649152983594
           0.100112428    0.13033408411125

[5d]
[7f]
[9g]

[MO]
 Sym= A
 Ene=    -18.52650693
 Spin= Alpha
 Occup=    2.00000
   1      0.12651011208855
   2       0.6816277004603
   3     -0.83648187135378
   4     0.035444099726252
   5    -1.7479883661165e-16
   6      0.41668939177358
   7     0.076308072814445
 Sym= A
 Ene=   -0.8372811228
 Spin= Alpha
 Occup=    2.00000
   1    -1.6194671159728e-16
   2    7.5023444321879e-19
   3    -1.1583254842087e-18
   4    -2.0707098997432e-17
   5                    -1
   6    -3.5762623967716e-16
   7    1.6480754110446e-16
 Sym= A
 Ene=   -0.3788707358
 Spin= Alpha
 Occup=    2.00000
   1      0.24639720189078
   2      -0.7412238891252
   3     -0.35941263407998
   4      0.12522934450725
   5    -2.0573649703553e-16
   6      0.40554476945789
   7     0.069025833460553
 Sym= A
 Ene=   -0.1639356103
 Spin= Alpha
 Occup=    2.00000
   1      0.47009706787438
   2      0.18821053903132
   3      0.36100895340602
   4      0.46582283697905
   5    -2.3456228278346e-16
   6      0.23447974939899
   7     -0.18968147178126
