[Molden Format]
made by pyscf v[1.7.5.1]
[Atoms] (AU)
H   1   1     1.41610066445830     0.00000000000000     0.83607700949708
O   2   8     0.00000000000000     0.00000000000000    -0.31246753750512
H   3   1    -1.41610066445830     0.00000000000000     0.83607700949708
[GTO]
1 0
 s    6 1.00
           35.52322122  0.0091635962807908
           6.513143725    0.04936149294426
           1.822142904    0.16853830491455
           0.625955266    0.37056279973198
           0.243076747    0.41649152983594
           0.100112428    0.13033408411125

2 0
 s    6 1.00
           1355.584234  0.0091635962805625
           248.5448855    0.04936149294303
           69.53390229    0.16853830491035
           23.88677211    0.37056279972275
           9.275932609    0.41649152982557
           3.820341298      0.130334084108
 s    6 1.00
           52.18776196  -0.013252788089709
           10.32932006  -0.046991710138969
           3.210344977  -0.033785371509258
           1.235135428    0.25024178609451
           0.536420158    0.59511725258694
           0.245880606    0.24070617629472
 p    6 1.00
           52.18776196  0.0037596966004099
           10.32932006   0.037679369804108
           3.210344977    0.17389674351896
           1.235135428    0.41803643474557
           0.536420158    0.42585954774642
           0.245880606    0.10170829551109

3 0
 s    6 1.00
           35.52322122  0.0091635962807908
           6.513143725    0.04936149294426
           1.822142904    0.16853830491455
           0.625955266    0.37056279973198
           0.243076747    0.41649152983594
           0.100112428    0.13033408411125

[5d]
[7f]
[9g]

[MO]
 Sym= A
 Ene=   -0.8372811228
 Spin= Alpha
 Occup=    2.00000
   1      0.31014516725032
   2    -0.054455005023039
   3      0.21367510074761
   4    4.5616095983572e-15
   5    -1.4560927349326e-16
   6       0.6329117831748
   7      0.31014516725032
 Sym= A
 Ene=   -0.3788707358
 Spin= Alpha
 Occup=    2.00000
   1       0.4389384781449
   2    -3.3773663676505e-16
   3    2.5240330568753e-15
   4      0.61980666196096
   5    2.4316839108138e-16
   6    -6.4535177775221e-15
   7      -0.4389384781449
 Sym= A
 Ene=  -0.06441322574
 Spin= Alpha
 Occup=    2.00000
   1    -2.2680642236071e-16
   2    -5.157051600491e-16
   3    4.0677317191072e-16
   4    -4.2009827225903e-16
   5                     1
   6    4.0926041708754e-17
   7    1.6205421612156e-16
