[Molden Format]
made by pyscf v[1.7.5.1]
[Atoms] (AU)
H   1   1     1.41610066445830     0.00000000000000     0.83607700949708
O   2   8     0.00000000000000     0.00000000000000    -0.31246753750512
H   3   1    -1.41610066445830     0.00000000000000     0.83607700949708
[GTO]
1 0
 s    3 1.00
            3.42525091    0.15432897070298
            0.62391373    0.53532814243847
             0.1688554    0.44463454202535

2 0
 s    3 1.00
             130.70932    0.15432896872316
             23.808861    0.53532813557095
             6.4436083    0.44463453632131
 s    3 1.00
             5.0331513  -0.099967228656673
             1.1695961    0.39951282463148
              0.380389    0.70011546059208
 p    3 1.00
             5.0331513    0.15591626847816
             1.1695961    0.60768371406861
              0.380389    0.39195738617424

3 0
 s    3 1.00
            3.42525091    0.15432897070298
            0.62391373    0.53532814243847
             0.1688554    0.44463454202535

[5d]
[7f]
[9g]

[MO]
 Sym= A
 Ene=    -18.27449288
 Spin= Alpha
 Occup=    2.00000
   1    -6.4500666871839e-06
   2       1.0226341242766
   3     -0.14922444386301
   4    1.2629185195722e-15
   5    9.7744495046184e-16
   6     0.064765009488851
   7    -6.4500666867684e-06
 Sym= A
 Ene=   -0.8304561967
 Spin= Alpha
 Occup=    2.00000
   1      0.31214850949564
   2    -0.061581344549888
   3      0.21644039295637
   4    -1.4509181886325e-15
   5    8.2500793965314e-17
   6      0.62824418720941
   7      0.31214850949564
 Sym= A
 Ene=   -0.3757359553
 Spin= Alpha
 Occup=    2.00000
   1      0.44134496793356
   2    -1.0482688408458e-15
   3    1.384138966054e-15
   4      0.61664578254514
   5    -7.4191058112733e-17
   6    -4.4951423669734e-16
   7     -0.44134496793356
 Sym= A
 Ene=   -0.1575540654
 Spin= Alpha
 Occup=    2.00000
   1      -0.1035421236752
   2    -0.062334283885638
   3      0.97184833688563
   4    -1.8452990427288e-15
   5    -4.4765689693038e-16
   6     -0.44265643350697
   7      -0.1035421236752
 Sym= A
 Ene=  -0.05844029148
 Spin= Alpha
 Occup=    2.00000
   1    4.319657631604e-17
   2    -1.0089567270376e-15
   3    5.0322779236004e-16
   4    1.4157090203337e-16
   5                     1
   6    -3.5472656306755e-16
   7    -1.4916320888899e-16
